|************************************************************************
|                       
|                            Intersil ICL3241E
|                               
|                          28 pin SOIC/SSOP/TSSOP
| 
|************************************************************************

[IBIS ver]      3.2
[File name]     icl3241e.ibs
[File Rev]      2.0
[Date]          July 23, 2003 

[Source]        Data used in the IBIS model was gathered from bench 
                testing and datasheet specifications. This IBIS model has not
                been software simulated. 
    
[Notes]         This is an IBIS model for an EIA-TIA RS-232 Transceiver.
                
[Disclaimer]    Intersil Corporation provides IBIS models as a service to its 
                customers, and hereby grants the user of this IBIS model a 
                non-exclusive, nontransferable license to use this IBIS model. 
                The user shall read this disclaimer and agree to the terms 
                herein before using this IBIS model.  If the user does not 
                accept these terms, the IBIS model may not be used.  Your use 
                of this IBIS model shall serve as acceptance of these terms. 
                The user is not granted rights to sell, loan, rent, lease or 
                license the IBIS model in whole, in part, or in any modified 
                form to anyone other than the user. The user may modify the 
                IBIS model to suit their specific application, but all rights 
                to derivative works shall belong to Intersil Corporation. This 
                IBIS model is provided on an "AS IS" basis. Intersil 
                Corporation makes absolutely no warranty with respect to the 
                information contained herein. INTERSIL CORPORATION DISCLAIMS, 
                AND THE CUSTOMER WAIVES, ALL WARRANTIES, EXPRESSED OR IMPLIED, 
                INCLUDING WARRANTIES OF MERCHANTABILITY, NON-INFRINGEMENT, AND 
                FITNESS FOR A PARTICULAR PURPOSE OR APPLICATION. The entire 
                risk as to quality and performance is with the customer. 
                Accordingly, in no event shall Intersil Corporation, its 
                subsidiaries, directors, employees, or agents be liable for any 
                damages, lost profits, or any other incidental, consequential, 
                special, or punitive damages arising out of the use of this 
                IBIS model.  Furthermore, Intersil Corporation reserves the 
                right to make changes without notice to any IBIS model for any 
                reason.  Intersil Corporation does not convey any license under 
                patent rights or any other intellectual property rights, 
                including those of third parties. Intersil Corporation is not 
                obligated to provide maintenance or support for these IBIS 
                models.

[Copyright]     (C) Copyright 2003, Intersil Corporation.  All Rights Reserved.

|************************************************************************
|                            Component ICL3241E
|************************************************************************

[Component]      ICL3241E
[Manufacturer]   Intersil Corporation  
[Package]

|               typ             min              max

R_pkg           0.30            NA               NA
L_pkg           3.25nH          NA               NA       
C_pkg           0.20pf          NA               NA

[Pin]  signal_name      model_name              R_pin     L_pin     C_pin

1      C2+              NC
2      C2-              NC
3      V-               NC
4      R1IN             R_IN
5      R2IN             R_IN
6      R3IN             R_IN                  
7      R4IN             R_IN                     
8      R5IN             R_IN       
9      T1OUT            T_OUT                    
10     T2OUT            T_OUT                  
11     T3OUT            T_OUT            
12     T3IN             T_IN                     
13     T2IN             T_IN
14     T1IN             T_IN                    
15     R5OUT            R_OUT
16     R4OUT            R_OUT
17     R3OUT            R_OUT
18     R2OUT            R_OUT
19     R1OUT            R_OUT
20     R2OUTB           R_OUTB
21     R1OUTB           R_OUTB
22     SHDN             SHDN_IN
23     ENABLE           EN_IN
24     C1-              NC
25     GND              GND
26     VCC              POWER
27     V+               NC
28     C1+              NC

 
|****************************************************************************
|                              Receiver Input
|****************************************************************************

[Model]          R_IN
|Signals         R1IN, R2IN, R3IN, R4IN, R5IN
Model_type       Input
Enable           Active-High

|               typ             min              max
C_comp          6.90pF          NA               NA

Vinl = 0.6
Vinh = 2.4

[Model Spec]

|      typ       min       max
Vinl   1.2       0.6       NA
Vinh   1.5       NA        2.4

[Temperature Range]       25                  -40                 85
[Voltage Range]           3.30V               3.00V               5.50V
 
[POWER Clamp Reference]   3.30V               3.00V               5.50V 
[GND Clamp Reference]     0.00V               0.00V               0.00V

|****************************************************************************

[POWER_clamp]

|-------------------------------------------------------------
| Note that the[POWER_clamp]voltage table is referenced to Vcc
| and is calculated using Vtable=Vcc - Vmeasured.
|-------------------------------------------------------------
|     V         I(typ)           I(min)    I(max)

   -0.00        6.50E-04         NA        NA
   -1.00        8.60E-04         NA        NA
   -2.00        1.06E-03         NA        NA
   -3.00        1.26E-03         NA        NA
   -4.00        1.46E-03         NA        NA
   -5.00        1.66E-03         NA        NA
   -5.50        1.76E-03         NA        NA


[GND_clamp]
  
|    V          I(typ)           I(min)    I(max)
   
   -5.50       -1.10E-03         NA        NA
   -5.00       -1.00E-03         NA        NA
   -4.00       -8.00E-04         NA        NA
   -3.00       -6.00E-04         NA        NA
   -2.00       -4.00E-04         NA        NA
   -1.00       -2.00E-04         NA        NA
    0.00        0.00E+00         NA        NA
    1.00        2.00E-04         NA        NA
    2.00        4.00E-04         NA        NA
    3.00        6.00E-04         NA        NA
    3.30        6.60E-04         NA        NA



|****************************************************************************
|                  Transmitter Input
|****************************************************************************

[Model]          T_IN
|Signals         T1IN, T2IN, T3IN  
Model_type       Input
Enable           Active-High
Vinl = 0.8V
Vinh = 2.0V
|               typ             min              max
C_comp          4.00pF          NA               NA

[Temperature Range]       25                  -40                 85
[Voltage Range]           3.30V               3.00V               5.50V
 
[POWER Clamp Reference]   3.30V               3.00V               5.50V 
[GND Clamp Reference]     0.00V               0.00V               0.00V

|****************************************************************************


[POWER_clamp]

|-------------------------------------------------------------
| Note that the[POWER_clamp]voltage table is referenced to Vcc
| and is calculated using Vtable=Vcc - Vmeasured.
|-------------------------------------------------------------

|    V          I(typ)          I(min)     I(max)

   -0.00        4.10E-07        NA         NA
   -1.00        7.60E-07        NA         NA
   -2.00        8.45E-07        NA         NA
   -3.00        1.25E-06        NA         NA
   -4.00        1.20E-03        NA         NA
   -5.00        4.50E-01        NA         NA
   -5.50        6.76E-01        NA         NA

[GND_clamp]

|    V          I(typ)          I(min)     I(max)

   -5.50       -2.58E-01        NA         NA
   -5.00       -2.27E-01        NA         NA
   -4.00       -1.66E-01        NA         NA
   -3.00       -1.10E-01        NA         NA
   -2.00       -6.00E-02        NA         NA
   -1.00       -1.00E-02        NA         NA
   -0.80       -2.50E-03        NA         NA
   -0.60       -1.55E-04        NA         NA
   -0.40       -2.00E-07        NA         NA
   -0.20       -1.00E-07        NA         NA
    0.00        6.70E-09        NA         NA
    1.00        2.08E-08        NA         NA
    2.00        3.22E-08        NA         NA
    3.00        4.29E-08        NA         NA
    4.00        5.56E-08        NA         NA
    5.00        6.99E-08        NA         NA
    5.50        7.88E-08        NA         NA



|****************************************************************************
|                     Receiver Output
|****************************************************************************

[Model]          R_OUT  
|Signals         R1OUT, R2OUT, R3OUT, R4OUT, R5OUT
Model_type       3-state
Polarity         Inverting

Vref    =   0.00
Rref    =   1.00E+03
Cref    =   15pF

|               typ             min              max
C_comp          3.30pF          NA               NA

[Temperature Range]       25                   -40                85
[Voltage Range]           3.30V               3.00V               5.50V

[Pullup Reference]        3.30V               3.00V               5.50V
[Pulldown Reference]      0.00V               0.00V               0.00V
[POWER Clamp Reference]   3.30V               3.00V               5.50V 
[GND Clamp Reference]     0.00V               0.00V               0.00V

|****************************************************************************

[POWER_clamp]

|-------------------------------------------------------------
| Note that the[POWER_clamp]voltage table is referenced to Vcc
| and is calculated using Vtable=Vcc - Vmeasured.
|-------------------------------------------------------------
|  
|    V          I(typ)           I(min)    I(max)

   -5.50        4.10E-01         NA        NA
   -5.00        3.70E-01         NA        NA
   -4.00        2.80E-01         NA        NA
   -3.00        1.90E-01         NA        NA
   -2.00        1.00E-01         NA        NA
   -1.00        1.20E-02         NA        NA  
   -0.60        3.80E-04         NA        NA
    0.00        0.00E+00         NA        NA

[GND_clamp]

|    V          I(typ)           I(min)    I(max)


   -5.50       -2.90E-01         NA        NA
   -1.50       -3.67E-02         NA        NA
   -1.00       -8.58E-03         NA        NA
   -0.90       -5.00E-03         NA        NA
   -0.70       -7.12E-04         NA        NA     
   -0.50       -1.27E-06         NA        NA
    0.00        0.00E+00         NA        NA
    1.00        9.85E-08         NA        NA
    2.00        1.98E-07         NA        NA
    3.00        2.97E-07         NA        NA
    4.00        3.96E-07         NA        NA
    5.00        4.95E-07         NA        NA
    5.50        5.44E-07         NA        NA

   
   
[Pulldown]

|    V          I(typ)           I(min)    I(max)

   11.00        2.27E-02         NA        NA
    9.00        2.26E-02         NA        NA
    8.00        2.25E-02         NA        NA
    7.00        2.24E-02         NA        NA
    6.00        2.23E-02         NA        NA
    5.00        2.22E-02         NA        NA
    4.00        2.19E-02         NA        NA
    3.50        2.17E-02         NA        NA
    3.00        2.15E-02         NA        NA
    2.50        2.07E-02         NA        NA 
    2.00        1.90E-02         NA        NA
    1.50        1.70E-02         NA        NA
    0.80        1.20E-02         NA        NA
    0.40        7.00E-03         NA        NA
    0.00        0.00E+00         NA        NA
   -5.50       -1.10E-04         NA        NA
   
[Pullup]
       
|-------------------------------------------------------------
| Note that the[Pullup]voltage table is referenced to Vcc
| and is calculated using Vtable=Vcc - Vmeasured.
|-------------------------------------------------------------

|    V          I(typ)           I(min)    I(max)
     
   11.00       -2.17E-02         NA        NA
    9.00       -2.16E-02         NA        NA
    8.00       -2.15E-02         NA        NA
    7.00       -2.14E-02         NA        NA
    6.00       -2.13E-02         NA        NA
    5.00       -2.12E-02         NA        NA
    4.00       -2.11E-02         NA        NA
    3.50       -2.10E-02         NA        NA
    3.00       -2.05E-02         NA        NA
    2.50       -2.00E-02         NA        NA
    2.00       -1.90E-02         NA        NA
    1.50       -1.70E-02         NA        NA
    1.00       -1.30E-02         NA        NA
    0.40       -5.10E-03         NA        NA
    0.00        0.00E+00         NA        NA
   -5.50        0.00E+00         NA        NA


[Ramp]

|             typ                min       max

dV/dt_r       1.83V/18.0nS       NA        NA
dV/dt_f       1.81V/23.6nS       NA        NA

R_load = 1.00E+03ohms


[Rising Waveform]

R_fixture = 1.00E+03
V_fixture = 0.0V
C_fixture = 15pF


|        Time           V(typ)           V(min)          V(max)

        0.00E-09        0.13              NA              NA
        1.00E-09        0.18              NA              NA
        2.00E-09        0.25              NA              NA
        3.00E-09        0.34              NA              NA  
        4.00E-09        0.41              NA              NA   
        5.00E-09        0.51              NA              NA   
        6.00E-09        0.63              NA              NA   
        7.00E-09        0.78              NA              NA   
        8.00E-09        0.91              NA              NA   
        9.00E-09        1.03              NA              NA   
        1.00E-08        1.19              NA              NA   
        1.10E-08        1.33              NA              NA
        1.20E-08        1.50              NA              NA
        1.30E-08        1.65              NA              NA
        1.40E-08        1.81              NA              NA
        1.50E-08        1.97              NA              NA
        1.60E-08        2.09              NA              NA
        1.70E-08        2.21              NA              NA
        1.80E-08        2.34              NA              NA
        1.90E-08        2.41              NA              NA
        2.00E-08        2.49              NA              NA
        2.10E-08        2.56              NA              NA
        2.20E-08        2.66              NA              NA
        2.30E-08        2.72              NA              NA
        2.40E-08        2.78              NA              NA
        2.50E-08        2.84              NA              NA   
        2.60E-08        2.91              NA              NA   
        2.70E-08        2.95              NA              NA
        2.80E-08        2.99              NA              NA
        2.90E-08        3.03              NA              NA
        3.00E-08        3.06              NA              NA
        3.10E-08        3.08              NA              NA
        3.20E-08        3.11              NA              NA
        3.30E-08        3.12              NA              NA
        3.40E-08        3.13              NA              NA   
  
   
     
   
[Falling Waveform]

R_fixture = 1.00E+03
V_fixture = 0.0V
C_fixture = 15pF


|        Time           V(typ)           V(min)         V(max)

        0.00E-09        3.13              NA              NA
        1.00E-09        3.12              NA              NA
        2.00E-09        3.11              NA              NA
        3.00E-09        3.08              NA              NA
        4.00E-09        3.06              NA              NA
        5.00E-09        3.03              NA              NA
        6.00E-09        2.99              NA              NA
        7.00E-09        2.96              NA              NA
        8.00E-09        2.94              NA              NA
        9.00E-09        2.88              NA              NA
        1.00E-08        2.84              NA              NA
        1.10E-08        2.81              NA              NA   
        1.20E-08        2.75              NA              NA   
        1.30E-08        2.69              NA              NA   
        1.40E-08        2.63              NA              NA   
        1.50E-08        2.53              NA              NA   
        1.60E-08        2.47              NA              NA   
        1.70E-08        2.34              NA              NA   
        1.80E-08        2.22              NA              NA   
        1.90E-08        2.13              NA              NA
        2.00E-08        2.03              NA              NA
        2.10E-08        1.91              NA              NA
        2.20E-08        1.75              NA              NA
        2.30E-08        1.63              NA              NA
        2.40E-08        1.50              NA              NA
        2.50E-08        1.38              NA              NA
        2.60E-08        1.22              NA              NA
        2.70E-08        1.09              NA              NA
        2.80E-08        0.94              NA              NA
        2.90E-08        0.81              NA              NA
        3.00E-08        0.66              NA              NA
        3.10E-08        0.53              NA              NA
        3.20E-08        0.41              NA              NA
        3.30E-08        0.31              NA              NA   
        3.40E-08        0.25              NA              NA   
        3.50E-08        0.19              NA              NA   
        3.60E-08        0.13              NA              NA

  

[Rising Waveform]

R_fixture = 1.00E+03
V_fixture = 3.3V
C_fixture = 15pF


|        Time           V(typ)           V(min)          V(max)

        0.00E+00        0.25              NA              NA
        1.00E-09        0.26              NA              NA
        2.00E-09        0.27              NA              NA
        3.00E-09        0.28              NA              NA
        4.00E-09        0.29              NA              NA   
        5.00E-09        0.31              NA              NA   
        6.00E-09        0.34              NA              NA   
        7.00E-09        0.36              NA              NA   
        8.00E-09        0.39              NA              NA   
        9.00E-09        0.42              NA              NA   
        1.00E-08        0.48              NA              NA   
        1.10E-08        0.58              NA              NA   
        1.20E-08        0.66              NA              NA
        1.30E-08        0.77              NA              NA
        1.40E-08        0.88              NA              NA
        1.50E-08        0.98              NA              NA
        1.60E-08        1.09              NA              NA
        1.70E-08        1.20              NA              NA
        1.80E-08        1.32              NA              NA
        1.90E-08        1.44              NA              NA
        2.00E-08        1.56              NA              NA
        2.10E-08        1.70              NA              NA
        2.20E-08        1.83              NA              NA
        2.30E-08        1.98              NA              NA
        2.40E-08        2.11              NA              NA
        2.50E-08        2.23              NA              NA
        2.60E-08        2.37              NA              NA   
        2.70E-08        2.50              NA              NA   
        2.80E-08        2.64              NA              NA   
        2.90E-08        2.75              NA              NA
        3.00E-08        2.86              NA              NA
        3.10E-08        2.95              NA              NA
        3.20E-08        3.05              NA              NA
        3.30E-08        3.11              NA              NA
        3.40E-08        3.16              NA              NA
        3.50E-08        3.19              NA              NA
        3.60E-08        3.22              NA              NA
        3.70E-08        3.24              NA              NA
        3.80E-08        3.26              NA              NA
        3.90E-08        3.28              NA              NA
        4.00E-08        3.29              NA              NA
        4.10E-08        3.30              NA              NA
        4.20E-08        3.31              NA              NA
   
[Falling Waveform]

R_fixture = 1.00E+03
V_fixture = 3.3V
C_fixture = 15pF


|        Time           V(typ)           V(min)         V(max)

        0.00E-09        3.31              NA              NA
        1.00E-09        3.30              NA              NA
        2.00E-09        3.29              NA              NA
        3.00E-09        3.28              NA              NA
        4.00E-09        3.26              NA              NA
        5.00E-09        3.24              NA              NA
        6.00E-09        3.22              NA              NA
        7.00E-09        3.19              NA              NA
        8.00E-09        3.17              NA              NA
        9.00E-09        3.15              NA              NA
        1.00E-08        3.13              NA              NA
        1.10E-08        3.09              NA              NA
        1.20E-08        3.06              NA              NA
        1.30E-08        3.03              NA              NA
        1.40E-08        2.97              NA              NA   
        1.50E-08        2.91              NA              NA   
        1.60E-08        2.85              NA              NA   
        1.70E-08        2.78              NA              NA   
        1.80E-08        2.69              NA              NA   
        1.90E-08        2.58              NA              NA   
        2.00E-08        2.47              NA              NA   
        2.10E-08        2.36              NA              NA   
        2.20E-08        2.22              NA              NA
        2.30E-08        2.07              NA              NA
        2.40E-08        1.94              NA              NA
        2.50E-08        1.78              NA              NA
        2.60E-08        1.64              NA              NA
        2.70E-08        1.51              NA              NA
        2.80E-08        1.37              NA              NA
        2.90E-08        1.22              NA              NA
        3.00E-08        1.09              NA              NA
        3.10E-08        0.96              NA              NA
        3.20E-08        0.83              NA              NA
        3.30E-08        0.74              NA              NA
        3.40E-08        0.65              NA              NA
        3.50E-08        0.57              NA              NA
        3.60E-08        0.52              NA              NA   
        3.70E-08        0.47              NA              NA   
        3.80E-08        0.43              NA              NA   
        3.90E-08        0.40              NA              NA
        4.00E-08        0.37              NA              NA
        4.10E-08        0.34              NA              NA
        4.20E-08        0.31              NA              NA
        4.30E-08        0.30              NA              NA
        4.40E-08        0.29              NA              NA
        4.50E-08        0.28              NA              NA
        4.60E-08        0.27              NA              NA
        4.70E-08        0.26              NA              NA
        4.80E-08        0.25              NA              NA



|****************************************************************************
|                     Inverted Receiver Output
|****************************************************************************

[Model]          R_OUTB  

|Signals         R1OUTB, R2OUTB
Model_type       Output
Polarity         Non-Inverting

Vref    =   0.00
Rref    =   1.00E+03
Cref    =   15pF

|               typ             min              max
C_comp          3.30pF          NA               NA

[Temperature Range]       25                   -40                85
[Voltage Range]           3.30V               3.00V               5.50V

[Pullup Reference]        3.30V               3.00V               5.50V
[Pulldown Reference]      0.00V               0.00V               0.00V

|****************************************************************************

[Pulldown]

|      Voltage          I(typ)            I(min)          I(max)

        11.00           6.23E-01           NA              NA
         5.00           9.00E-02           NA              NA
         4.50           5.00E-02           NA              NA
         4.30           3.00E-02           NA              NA
         4.20           2.70E-02           NA              NA
         4.10           2.40E-02           NA              NA
         4.00           2.25E-02           NA              NA
         3.00           2.20E-02           NA              NA
         2.00           2.00E-02           NA              NA
         1.50           1.70E-02           NA              NA
         1.00           1.30E-02           NA              NA
         0.50           7.00E-03           NA              NA
         0.00          -1.00E-04           NA              NA
        -0.50          -9.00E-03           NA              NA
        -0.80          -1.80E-02           NA              NA
        -1.00          -3.10E-02           NA              NA
        -2.00          -1.30E-01           NA              NA
        -5.50          -5.20E-01           NA              NA
   
 
[Pullup]
       
|-------------------------------------------------------------
| Note that the[Pullup]voltage table is referenced to Vcc
| and is calculated using Vtable=Vcc - Vmeasured.
|-------------------------------------------------------------

|      Voltage         I(typ)             I(min)          I(max)

        11.00          -1.30E+00           NA              NA
         5.00          -1.40E-01           NA              NA
         4.50          -5.20E-02           NA              NA
         4.40          -4.00E-02           NA              NA
         4.30          -2.50E-02           NA              NA
         4.20          -2.30E-02           NA              NA
         4.10          -2.00E-02           NA              NA
         4.00          -1.90E-02           NA              NA
         3.50          -1.80E-02           NA              NA
         3.00          -1.75E-02           NA              NA
         2.50          -1.70E-02           NA              NA
         2.00          -1.60E-02           NA              NA
         1.50          -1.40E-02           NA              NA
         1.00          -1.00E-02           NA              NA
         0.50          -6.00E-03           NA              NA
         0.00           0.00E+00           NA              NA
        -0.70           7.00E-03           NA              NA
        -0.80           1.20E-02           NA              NA
        -0.90           2.00E-02           NA              NA
        -1.00           3.00E-02           NA              NA
        -1.50           9.50E-02           NA              NA
        -5.50           6.30E-01           NA              NA

[Rising Waveform]

R_fixture = 1.00E+03
V_fixture = 0.0V
C_fixture = 15pF


|        Time           V(typ)           V(min)          V(max)


        0.00E-10        0.06              NA              NA
        5.00E-10        0.07              NA              NA
        1.00E-09        0.08              NA              NA
        1.50E-09        0.09              NA              NA
        2.00E-09        0.13              NA              NA
        2.50E-09        0.16              NA              NA
        3.00E-09        0.22              NA              NA
        3.50E-09        0.26              NA              NA
        4.00E-09        0.34              NA              NA   
        4.50E-09        0.42              NA              NA   
        5.00E-09        0.50              NA              NA   
        5.50E-09        0.61              NA              NA   
        6.00E-09        0.72              NA              NA   
        6.50E-09        0.83              NA              NA   
        7.00E-09        0.95              NA              NA   
        7.50E-09        1.09              NA              NA   
        8.00E-09        1.22              NA              NA
        8.50E-09        1.34              NA              NA
        9.00E-09        1.45              NA              NA
        9.50E-09        1.59              NA              NA
        1.00E-08        1.70              NA              NA
        1.05E-08        1.83              NA              NA
        1.10E-08        1.94              NA              NA
        1.15E-08        2.04              NA              NA
        1.20E-08        2.14              NA              NA
        1.25E-08        2.23              NA              NA
        1.30E-08        2.34              NA              NA
        1.35E-08        2.44              NA              NA
        1.40E-08        2.50              NA              NA
        1.45E-08        2.56              NA              NA
        1.50E-08        2.64              NA              NA   
        1.55E-08        2.69              NA              NA   