|***************************************************************************
|                             Intersil ISL4489E       
|                              
|                             14 PIN SOIC
|                       
|***************************************************************************
|
[IBIS Ver]      3.2    
[File name]     isl4489e.ibs      
[File Rev]      2.0    
[Date]          April 06,2004 
    
[Source]        Data used in this IBIS model was gathered from bench 
                testing and datasheet specifications.  This model has not been 
                software simulated. Package parasitics are industry norms, 
                rather than actual measured values.
    
[Notes]         This is an IBIS model for an EIA-TIA RS-485/422 Transceiver.

[Disclaimer]    Intersil Corporation provides IBIS models as a service to its 
                customers, and hereby grants the user of this IBIS model a 
                non-exclusive, nontransferable license to use this IBIS model. 
                The user shall read this disclaimer and agree to the terms 
                herein before using this IBIS model.  If the user does not 
                accept these terms, the IBIS model may not be used.  Your use 
                of this IBIS model shall serve as acceptance of these terms. 
                The user is not granted rights to sell, loan, rent, lease or 
                license the IBIS model in whole, in part, or in any modified 
                form to anyone other than the user. The user may modify the 
                IBIS model to suit their specific application, but all rights 
                to derivative works shall belong to Intersil Corporation. This 
                IBIS model is provided on an "AS IS" basis. Intersil 
                Corporation makes absolutely no warranty with respect to the 
                information contained herein. INTERSIL CORPORATION DISCLAIMS, 
                AND THE CUSTOMER WAIVES, ALL WARRANTIES, EXPRESSED OR IMPLIED, 
                INCLUDING WARRANTIES OF MERCHANTABILITY, NON-INFRINGEMENT, AND 
                FITNESS FOR A PARTICULAR PURPOSE OR APPLICATION. The entire 
                risk as to quality and performance is with the customer. 
                Accordingly, in no event shall Intersil Corporation, its 
                subsidiaries, directors, employees, or agents be liable for any 
                damages, lost profits, or any other incidental, consequential, 
                special, or punitive damages arising out of the use of this 
                IBIS model.  Furthermore, Intersil Corporation reserves the 
                right to make changes without notice to any IBIS model for any 
                reason.  Intersil Corporation does not convey any license under 
                patent rights or any other intellectual property rights, 
                including those of third parties. Intersil Corporation is not 
                obligated to provide maintenance or support for these IBIS 
                models.

[Copyright]     (C) Copyright 2004, Intersil Corporation.  All Rights Reserved.

|*****************************************************************************
|                              Component ISL4489E
|*****************************************************************************

[Component]     ISL4489E            
[Manufacturer]  Intersil
[Package]       
|               typ             min              max

R_pkg           0.250            NA               NA
L_pkg           2.470nH          NA               NA       
C_pkg           0.20pf           NA               NA
|
|****************************************************************************
|
[Pin]   signal_name     model_name        R_pin   L_pin    C_pin      
|
1       NC              NC            
2       RO              REC_OUT         
3       RE              REC_ENABLE        
4       DE              DRVR_ENABLE           
5       DI              DRVR_IN                
6       GND             GND        
7       GND             GND
8       NC              NC
9       Y               DRVR_OUT
10      Z               DRVR_OUT
11      A               REC_IN
12      B               REC_IN
13      NC              NC
14      VCC             POWER
              

[Diff_pin]   inv_pin    vdiff    tdelay_typ    tdelay_min    tdelay_max     

| The 'Y' pin is Diff_pin and the 'Z' pin is the inv_pin for the driver output.

    9           10       200mV     120ns           0ns         800ns

| T_delay is the skew between output A, and output B.  A positive value 
| indicates that B is delayed from A.  A negative value indicates that A is 
| delayed from B.


| The 'A' pin is Diff_pin and the 'B' pin is the inv-pin for the receiver input.
 
    11          12       200mV    0ns           0ns           0ns

|****************************************************************************
|                         Driver Input Model
|****************************************************************************
|
[Model]         DRVR_IN
Model_type      Input  
|Signals:        DI
Vinh = 2.0
Vinl = 0.8
|                       typ             min             max
C_comp                  1.3pf          NA              NA

|****************************************************************************

|                       typ             min             max
[Temperature Range]     25.0          -40.00            85.0
[Voltage range]         5.0V            4.5V            5.5V

|****************************************************************************

[GND_clamp]

|       Voltage        I(typ)              I(min)          I(max)       

        -5.00          -2.26E+00           NA              NA
        -4.00          -1.72E+00           NA              NA
        -3.00          -1.20E+00           NA              NA
        -2.00          -6.40E-01           NA              NA
        -1.00          -1.00E-01           NA              NA
        -0.95          -8.70E-02           NA              NA
        -0.90          -4.40E-02           NA              NA
        -0.80          -8.20E-03           NA              NA
        -0.70          -1.40E-03           NA              NA
        -0.60          -2.10E-04           NA              NA
        -0.50          -2.80E-05           NA              NA
        -0.40          -2.70E-06           NA              NA
        -0.30          -1.40E-07           NA              NA
        -0.20          -2.00E-08           NA              NA
        -0.10          -9.00E-09           NA              NA
         0.00           9.00E-09           NA              NA
         1.00           9.00E-08           NA              NA
         2.00           1.80E-07           NA              NA
         3.00           2.70E-07           NA              NA
         4.00           3.40E-07           NA              NA
         5.00           4.50E-07           NA              NA
      

[Power_clamp]

|-------------------------------------------------------------
| Note that the[POWER_clamp]voltage table is referenced to Vcc
| and is calculated using Vtable=Vcc - Vmeasured.
|-------------------------------------------------------------

|      Voltage           I(typ)            I(min)          I(max)

        -5.00            2.86E+00          NA              NA
        -4.00            2.17E+00          NA              NA
        -3.00            1.48E+00          NA              NA
        -2.00            7.90E-01          NA              NA
        -1.00            1.00E-01          NA              NA
        -0.90            3.10E-02          NA              NA
        -0.80            2.30E-03          NA              NA
        -0.70            6.20E-05          NA              NA
        -0.60            1.50E-06          NA              NA
        -0.50            1.40E-06          NA              NA
        -0.40            1.20E-06          NA              NA
        -0.30            3.40E-07          NA              NA
        -0.20            2.50E-07          NA              NA
        -0.10            1.50E-07          NA              NA
         0.00            1.00E-07          NA              NA      


|****************************************************************************
|                         Driver Enable Model
|****************************************************************************
|
[Model]         DRVR_ENABLE
Model_type      Input  
|Signals        DE
Vinh = 2.0
Vinl = 0.8
|                       typ             min             max
C_comp                  1.3pf           NA              NA

|****************************************************************************

|                       typ             min             max
[Temperature Range]     25.0          -40.0            85.0
[Voltage range]         5.0             4.5             5.5
|
|****************************************************************************

[GND_clamp]

|       Voltage        I(typ)              I(min)          I(max)

        -5.00          -3.70E+00           NA              NA
        -4.00          -2.80E+00           NA              NA
        -3.00          -1.90E+00           NA              NA
        -2.00          -1.00E+00           NA              NA
        -1.00          -1.30E-01           NA              NA
        -0.95          -9.00E-02           NA              NA
        -0.90          -4.60E-02           NA              NA
        -0.80          -8.70E-03           NA              NA
        -0.70          -1.40E-03           NA              NA
        -0.60          -2.70E-04           NA              NA
        -0.50          -4.80E-05           NA              NA
        -0.40          -1.80E-05           NA              NA
        -0.30          -1.40E-05           NA              NA
        -0.20          -1.40E-05           NA              NA
        -0.10          -1.30E-05           NA              NA
         0.00          -1.20E-05           NA              NA
         1.00          -1.00E-05           NA              NA
         2.00          -7.83E-06           NA              NA
         3.00          -4.97E-06           NA              NA
         4.00          -2.37E-06           NA              NA
         5.00          -4.10E-07           NA              NA
 
[Power_clamp]

|-------------------------------------------------------------
| Note that the[POWER_clamp]voltage table is referenced to Vcc
| and is calculated using Vtable=Vcc - Vmeasured.
|-------------------------------------------------------------

|      Voltage        I(typ)             I(min)          I(max)
      
        -5.00             2.70E+00          NA              NA
        -4.00             2.10E+00          NA              NA
        -3.00             1.40E+00          NA              NA
        -2.00             7.60E-01          NA              NA
        -1.00             9.80E-02          NA              NA
        -0.95             6.50E-02          NA              NA
        -0.90             3.20E-02          NA              NA
        -0.80             2.50E-03          NA              NA
        -0.70             6.60E-05          NA              NA
        -0.60             3.50E-06          NA              NA
        -0.50             1.50E-06          NA              NA
        -0.40             1.10E-06          NA              NA
        -0.30             8.80E-07          NA              NA
        -0.20             5.80E-07          NA              NA
        -0.10             3.00E-07          NA              NA
         0.00             5.00E-08          NA              NA


|****************************************************************************
|                         Receiver Enable Model
|****************************************************************************

[Model]         REC_ENABLE
Model_type      Input  
|Signals        RE                                  
Vinh = 2.0
Vinl = 0.8
|                       typ             min             max
C_comp                  1.3pF           NA              NA

|****************************************************************************

|                       typ             min             max
[Temperature Range]     25.0          -40.0            85.0
[Voltage range]         5.0             4.5             5.5

|****************************************************************************

[GND_clamp]

|       Voltage        I(typ)            I(min)          I(max)
       
        -5.00          -3.60E+00           NA              NA
        -4.00          -2.70E+00           NA              NA
        -3.00          -1.90E+00           NA              NA
        -2.00          -1.00E+00           NA              NA
        -1.00          -1.40E-01           NA              NA  
        -0.95          -9.80E-02           NA              NA
        -0.90          -5.50E-02           NA              NA
        -0.80          -1.10E-02           NA              NA
        -0.70          -1.80E-03           NA              NA
        -0.60          -2.70E-04           NA              NA
        -0.50          -4.00E-05           NA              NA
        -0.40          -6.30E-06           NA              NA
        -0.30          -1.40E-06           NA              NA
        -0.20          -6.00E-07           NA              NA
        -0.10          -2.80E-07           NA              NA
         0.00           1.00E-09           NA              NA
         1.00           9.00E-06           NA              NA
         2.00           1.00E-05           NA              NA
         3.00           1.50E-05           NA              NA
         4.00           1.60E-05           NA              NA
         5.00           1.80E-05           NA              NA 

[Power_clamp]

|-------------------------------------------------------------
| Note that the[POWER_clamp]voltage table is referenced to Vcc
| and is calculated using Vtable=Vcc - Vmeasured.
|-------------------------------------------------------------

|    Voltage           I(typ)            I(min)          I(max)

        -5.00             2.70E+00          NA              NA
        -4.00             2.10E+00          NA              NA
        -3.00             1.41E+00          NA              NA
        -2.00             7.60E-01          NA              NA
        -1.00             9.80E-02          NA              NA
        -0.95             6.50E-02          NA              NA
        -0.90             3.20E-02          NA              NA
        -0.80             2.40E-03          NA              NA
        -0.70             8.40E-05          NA              NA
        -0.60             3.50E-06          NA              NA
        -0.50             1.50E-06          NA              NA
        -0.40             1.10E-06          NA              NA
        -0.30             8.80E-07          NA              NA
        -0.20             5.80E-07          NA              NA
        -0.10             3.00E-07          NA              NA
         0.00             5.00E-08          NA              NA


|*****************************************************************************
|                         Driver Output Model
|*****************************************************************************
|
[Model]         DRVR_OUT            
Model_type      3-state
| Signals       Y,Z

Vmeas = 2.7V        |Reference voltage for timing measurements
Cref  = 100pF       |Timing specification test load capacitance value
Rref  = 27          |Note: 27 ohm load for single ended measurement
Vref  = 2.7V        |      emulates 54 ohm differential load.

| variable              typ             min             max

C_comp                  9.7pF           NA              NA

|****************************************************************************

|                       typ             min             max
[Temperature Range]     25.0          -40.0            85.0
[Voltage range]         5.0V            4.5             5.5

|****************************************************************************

[GND_clamp]

|       Voltage        I(typ)            I(min)          I(max)
      
        -5.00          -2.04E-05           NA              NA
        -4.00          -1.68E-05           NA              NA
        -3.00          -1.31E-05           NA              NA
        -2.00          -9.52E-06           NA              NA
        -1.00          -5.96E-06           NA              NA  
         0.00          -2.58E-06           NA              NA
         1.00          -7.54E-09           NA              NA
         2.00           1.80E-10           NA              NA
         3.00           2.61E-10           NA              NA
         4.00           1.06E-06           NA              NA
         5.00           3.46E-06           NA              NA 

[Power_clamp]

|-------------------------------------------------------------
| Note that the[POWER_clamp]voltage table is referenced to Vcc
| and is calculated using Vtable=Vcc - Vmeasured.
|-------------------------------------------------------------
|
|    Voltage           I(typ)            I(min)          I(max)
|

        -5.00             1.57E-05          NA              NA
        -4.00             1.32E-05          NA              NA
        -3.00             1.07E-05          NA              NA
        -2.00             8.24E-06          NA              NA
        -1.00             5.77E-06          NA              NA
         0.00             3.46E-06          NA              NA


[Pulldown]

|
|      Voltage         I(typ)             I(min)          I(max)

       -5.00           -0.00E-00            NA              NA
       -4.00           -0.00E-00            NA              NA
       -3.00           -0.00E-00            NA              NA
       -2.00           -0.00E-00            NA              NA
       -1.00           -0.00E-00            NA              NA
        0.00           -0.00E-00            NA              NA
        0.20            1.89E-06            NA              NA
        0.40            6.29E-05            NA              NA
        0.60            3.70E-03            NA              NA
        1.00            2.32E-02            NA              NA
        1.50            5.13E-02            NA              NA
        2.00            7.71E-02            NA              NA
        2.50            9.86E-02            NA              NA
        3.00            1.16E-01            NA              NA
        3.50            1.29E-01            NA              NA
        4.00            1.41E-01            NA              NA
        5.00            1.57E-01            NA              NA
        5.30            1.60E-01            NA              NA
        6.00            9.53E-02            NA              NA
        7.00            9.53E-02            NA              NA
        8.00            9.53E-02            NA              NA
        9.00            9.53E-02            NA              NA
       10.00            9.53E-02            NA              NA
       
[Pullup]

|-------------------------------------------------------------
| Note that the[Pullup]voltage table is referenced to Vcc
| and is calculated using Vtable=Vcc - Vmeasured.
|-------------------------------------------------------------

|       Voltage        I(typ)             I(min)          I(max)
      
      -5.00            -0.00E-00           NA              NA
       0.00             0.00E-00           NA              NA
       0.10            -5.49E-06           NA              NA
       0.30            -6.51E-04           NA              NA
       0.50            -2.04E-02           NA              NA
       1.00            -3.76E-02           NA              NA
       1.50            -5.30E-02           NA              NA
       2.00            -6.66E-02           NA              NA
       2.50            -7.83E-02           NA              NA
       3.00            -8.81E-02           NA              NA
       3.50            -9.63E-02           NA              NA
       4.00            -1.03E-01           NA              NA
       4.50            -1.08E-01           NA              NA
       5.00            -1.12E-01           NA              NA
       5.30            -1.14E-01           NA              NA
       5.40            -9.77E-02           NA              NA
       6.00            -9.77E-02           NA              NA
       7.00            -9.77E-02           NA              NA
       8.00            -9.77E-02           NA              NA
       9.00            -9.77E-02           NA              NA
      10.00            -9.77E-02           NA              NA 

[Ramp]

| variable       typ                  min                 max

dV/dt_r          2.74/398nS           NA                  NA 
dV/dt_f          2.27/124nS           NA                  NA

R_load = 500ohms


[Rising Waveform]

R_fixture = 27.0 
V_fixture = 2.60V
C_fixture = 100pF


|        Time           V(typ)          V(min)         V(max)

        0.00E+00        1.294           NA              NA
        2.00E-08        1.284           NA              NA
        6.00E-08        1.309           NA              NA
        8.00E-08        1.310           NA              NA
        1.20E-07        1.326           NA              NA
        1.40E-07        1.361           NA              NA
        1.60E-07        1.404           NA              NA
        2.00E-07        1.511           NA              NA
        2.20E-07        1.567           NA              NA
        2.40E-07        1.646           NA              NA
        2.60E-07        1.706           NA              NA
        3.00E-07        1.846           NA              NA
        3.20E-07        1.922           NA              NA
        3.40E-07        2.001           NA              NA
        3.80E-07        2.175           NA              NA
        4.00E-07        2.270           NA              NA
        4.20E-07        2.366           NA              NA
        4.40E-07        2.441           NA              NA
        4.60E-07        2.548           NA              NA
        5.00E-07        2.736           NA              NA
        5.20E-07        2.841           NA              NA
        5.40E-07        2.930           NA              NA
        5.60E-07        3.010           NA              NA
        6.00E-07        3.137           NA              NA
        6.20E-07        3.199           NA              NA
        6.40E-07        3.246           NA              NA
        6.60E-07        3.280           NA              NA
        7.00E-07        3.363           NA              NA
        7.20E-07        3.390           NA              NA
        7.40E-07        3.417           NA              NA
        7.60E-07        3.432           NA              NA
        7.80E-07        3.460           NA              NA
        8.20E-07        3.488           NA              NA
        8.60E-07        3.524           NA              NA
        8.80E-07        3.518           NA              NA
        9.00E-07        3.529           NA              NA
        9.40E-07        3.545           NA              NA
        9.60E-07        3.557           NA              NA
        1.00E-06        3.588           NA              NA
        1.02E-06        3.604           NA              NA
        1.04E-06        3.605           NA              NA
        1.06E-06        3.610           NA              NA
        1.10E-06        3.638           NA              NA
        1.14E-06        3.659           NA              NA
        1.16E-06        3.667           NA              NA
        1.18E-06        3.665           NA              NA
        1.20E-06        3.691           NA              NA
        1.22E-06        3.705           NA              NA
        1.28E-06        3.722           NA              NA
        1.30E-06        3.726           NA              NA
        1.32E-06        3.745           NA              NA
        1.34E-06        3.755           NA              NA
        1.38E-06        3.777           NA              NA
        1.40E-06        3.780           NA              NA
        1.44E-06        3.782           NA              NA
        1.46E-06        3.803           NA              NA
        1.48E-06        3.794           NA              NA
        1.50E-06        3.799           NA              NA
        1.52E-06        3.827           NA              NA
        1.54E-06        3.817           NA              NA
        1.58E-06        3.822           NA              NA
        1.60E-06        3.824           NA              NA
        1.64E-06        3.819           NA              NA
        1.66E-06        3.842           NA              NA
        1.68E-06        3.830           NA              NA
        1.72E-06        3.822           NA              NA
        1.74E-06        3.825           NA              NA
        1.76E-06        3.830           NA              NA
        1.80E-06        3.829           NA              NA
        1.82E-06        3.816           NA              NA
        1.84E-06        3.813           NA              NA
        1.86E-06        3.813           NA              NA
        1.90E-06        3.807           NA              NA
        1.94E-06        3.793           NA              NA
        1.96E-06        3.788           NA              NA
        1.98E-06        3.784           NA              NA
        2.00E-06        3.781           NA              NA
        2.02E-06        3.786           NA              NA
        2.06E-06        3.754           NA              NA
        2.08E-06        3.765           NA              NA
        2.10E-06        3.753           NA              NA
        2.12E-06        3.736           NA              NA
        2.14E-06        3.747           NA              NA
        2.16E-06        3.729           NA              NA
        2.18E-06        3.728           NA              NA
        2.22E-06        3.723           NA              NA
        2.24E-06        3.705           NA              NA
        2.26E-06        3.689           NA              NA
        2.28E-06        3.687           NA              NA
        2.30E-06        3.689           NA              NA
        2.32E-06        3.690           NA              NA
        2.34E-06        3.683           NA              NA
        2.38E-06        3.670           NA              NA
        2.40E-06        3.676           NA              NA
        2.42E-06        3.664           NA              NA
        2.44E-06        3.670           NA              NA
        2.48E-06        3.654           NA              NA
        2.50E-06        3.654           NA              NA


[Falling Waveform]

R_fixture = 27 
V_fixture = 2.60V
C_fixture = 100pF


|        Time           V(typ)         V(min)         V(max)


        0.00E+00        3.684           NA              NA
        2.00E-08        3.698           NA              NA
        4.00E-08        3.684           NA              NA
        6.00E-08        3.701           NA              NA
        8.00E-08        3.681           NA              NA
        1.00E-07        3.665           NA              NA
        1.20E-07        3.666           NA              NA
        1.40E-07        3.633           NA              NA
        1.60E-07        3.614           NA              NA
        1.80E-07        3.565           NA              NA
        2.00E-07        3.499           NA              NA
        2.20E-07        3.426           NA              NA
        2.40E-07        3.345           NA              NA
        2.60E-07        3.245           NA              NA
        2.80E-07        3.155           NA              NA
        3.00E-07        3.059           NA              NA
        3.20E-07        2.974           NA              NA
        3.40E-07        2.854           NA              NA
        3.60E-07        2.755           NA              NA
        3.80E-07        2.652           NA              NA
        4.00E-07        2.561           NA              NA
        4.20E-07        2.476           NA              NA
        4.40E-07        2.398           NA              NA
        4.60E-07        2.328           NA              NA
        4.80E-07        2.250           NA              NA
        5.00E-07        2.187           NA              NA
        5.20E-07        2.134           NA              NA
        5.40E-07        2.070           NA              NA
        5.60E-07        2.017           NA              NA
        5.80E-07        1.977           NA              NA
        6.00E-07        1.930           NA              NA
        6.20E-07        1.892           NA              NA
        6.40E-07        1.856           NA              NA
        6.60E-07        1.818           NA              NA
        6.80E-07        1.788           NA              NA
        7.00E-07        1.750           NA              NA
        7.20E-07        1.729           NA              NA
        7.40E-07        1.703           NA              NA
        7.60E-07        1.677           NA              NA
        7.80E-07        1.653           NA              NA
        8.00E-07        1.633           NA              NA
        8.20E-07        1.615           NA              NA
        8.40E-07        1.595           NA              NA
        8.60E-07        1.566           NA              NA
        8.80E-07        1.549           NA              NA
        9.00E-07        1.543           NA              NA
        9.20E-07        1.528           NA              NA